+ 2.01714 /NodeList/0/DeviceList/1/$ns3::PointToPointNetDevice/TxQueue/Enqueue ns3::PppHeader (Point-to-Point Protocol: IP (0x0021)) ns3::Ipv4Header (tos 0x0 DSCP Default ECN Not-ECT ttl 64 id 0 protocol 17 offset (bytes) 0 flags [MF] length: 1500 88.77.66.1 > 88.77.66.2) ns3::UdpHeader (length: 1508 49153 > 8001) Payload Fragment [0:1472]
- 2.01714 /NodeList/0/DeviceList/1/$ns3::PointToPointNetDevice/TxQueue/Dequeue ns3::PppHeader (Point-to-Point Protocol: IP (0x0021)) ns3::Ipv4Header (tos 0x0 DSCP Default ECN Not-ECT ttl 64 id 0 protocol 17 offset (bytes) 0 flags [MF] length: 1500 88.77.66.1 > 88.77.66.2) ns3::UdpHeader (length: 1508 49153 > 8001) Payload Fragment [0:1472]
+ 2.01714 /NodeList/0/DeviceList/1/$ns3::PointToPointNetDevice/TxQueue/Enqueue ns3::PppHeader (Point-to-Point Protocol: IP (0x0021)) ns3::Ipv4Header (tos 0x0 DSCP Default ECN Not-ECT ttl 64 id 0 protocol 17 offset (bytes) 1480 flags [none] length: 48 88.77.66.1 > 88.77.66.2) Payload Fragment [1472:1500]
- 2.01749 /NodeList/0/DeviceList/1/$ns3::PointToPointNetDevice/TxQueue/Dequeue ns3::PppHeader (Point-to-Point Protocol: IP (0x0021)) ns3::Ipv4Header (tos 0x0 DSCP Default ECN Not-ECT ttl 64 id 0 protocol 17 offset (bytes) 1480 flags [none] length: 48 88.77.66.1 > 88.77.66.2) Payload Fragment [1472:1500]
+ 2.03429 /NodeList/0/DeviceList/1/$ns3::PointToPointNetDevice/TxQueue/Enqueue ns3::PppHeader (Point-to-Point Protocol: IP (0x0021)) ns3::Ipv4Header (tos 0x0 DSCP Default ECN Not-ECT ttl 64 id 1 protocol 17 offset (bytes) 0 flags [MF] length: 1500 88.77.66.1 > 88.77.66.2) ns3::UdpHeader (length: 1508 49153 > 8001) Payload Fragment [0:1472]
- 2.03429 /NodeList/0/DeviceList/1/$ns3::PointToPointNetDevice/TxQueue/Dequeue ns3::PppHeader (Point-to-Point Protocol: IP (0x0021)) ns3::Ipv4Header (tos 0x0 DSCP Default ECN Not-ECT ttl 64 id 1 protocol 17 offset (bytes) 0 flags [MF] length: 1500 88.77.66.1 > 88.77.66.2) ns3::UdpHeader (length: 1508 49153 > 8001) Payload Fragment [0:1472]
+ 2.03429 /NodeList/0/DeviceList/1/$ns3::PointToPointNetDevice/TxQueue/Enqueue ns3::PppHeader (Point-to-Point Protocol: IP (0x0021)) ns3::Ipv4Header (tos 0x0 DSCP Default ECN Not-ECT ttl 64 id 1 protocol 17 offset (bytes) 1480 flags [none] length: 48 88.77.66.1 > 88.77.66.2) Payload Fragment [1472:1500]
- 2.03463 /NodeList/0/DeviceList/1/$ns3::PointToPointNetDevice/TxQueue/Dequeue ns3::PppHeader (Point-to-Point Protocol: IP (0x0021)) ns3::Ipv4Header (tos 0x0 DSCP Default ECN Not-ECT ttl 64 id 1 protocol 17 offset (bytes) 1480 flags [none] length: 48 88.77.66.1 > 88.77.66.2) Payload Fragment [1472:1500]
r 2.04449 /NodeList/1/DeviceList/1/$ns3::PointToPointNetDevice/MacRx ns3::PppHeader (Point-to-Point Protocol: IP (0x0021)) ns3::Ipv4Header (tos 0x0 DSCP Default ECN Not-ECT ttl 64 id 0 protocol 17 offset (bytes) 0 flags [MF] length: 1500 88.77.66.1 > 88.77.66.2) ns3::UdpHeader (length: 1508 49153 > 8001) Payload Fragment [0:1472]
r 2.0445 /NodeList/1/DeviceList/1/$ns3::PointToPointNetDevice/MacRx ns3::PppHeader (Point-to-Point Protocol: IP (0x0021)) ns3::Ipv4Header (tos 0x0 DSCP Default ECN Not-ECT ttl 64 id 0 protocol 17 offset (bytes) 1480 flags [none] length: 48 88.77.66.1 > 88.77.66.2) Payload Fragment [1472:1500]
+ 2.05143 /NodeList/0/DeviceList/1/$ns3::PointToPointNetDevice/TxQueue/Enqueue ns3::PppHeader (Point-to-Point Protocol: IP (0x0021)) ns3::Ipv4Header (tos 0x0 DSCP Default ECN Not-ECT ttl 64 id 2 protocol 17 offset (bytes) 0 flags [MF] length: 1500 88.77.66.1 > 88.77.66.2) ns3::UdpHeader (length: 1508 49153 > 8001) Payload Fragment [0:1472]
- 2.05143 /NodeList/0/DeviceList/1/$ns3::PointToPointNetDevice/TxQueue/Dequeue ns3::PppHeader (Point-to-Point Protocol: IP (0x0021)) ns3::Ipv4Header (tos 0x0 DSCP Default ECN Not-ECT ttl 64 id 2 protocol 17 offset (bytes) 0 flags [MF] length: 1500 88.77.66.1 > 88.77.66.2) ns3::UdpHeader (length: 1508 49153 > 8001) Payload Fragment [0:1472]
+ 2.05143 /NodeList/0/DeviceList/1/$ns3::PointToPointNetDevice/TxQueue/Enqueue ns3::PppHeader (Point-to-Point Protocol: IP (0x0021)) ns3::Ipv4Header (tos 0x0 DSCP Default ECN Not-ECT ttl 64 id 2 protocol 17 offset (bytes) 1480 flags [none] length: 48 88.77.66.1 > 88.77.66.2) Payload Fragment [1472:1500]
- 2.05177 /NodeList/0/DeviceList/1/$ns3::PointToPointNetDevice/TxQueue/Dequeue ns3::PppHeader (Point-to-Point Protocol: IP (0x0021)) ns3::Ipv4Header (tos 0x0 DSCP Default ECN Not-ECT ttl 64 id 2 protocol 17 offset (bytes) 1480 flags [none] length: 48 88.77.66.1 > 88.77.66.2) Payload Fragment [1472:1500]
r 2.06163 /NodeList/1/DeviceList/1/$ns3::PointToPointNetDevice/MacRx ns3::PppHeader (Point-to-Point Protocol: IP (0x0021)) ns3::Ipv4Header (tos 0x0 DSCP Default ECN Not-ECT ttl 64 id 1 protocol 17 offset (bytes) 0 flags [MF] length: 1500 88.77.66.1 > 88.77.66.2) ns3::UdpHeader (length: 1508 49153 > 8001) Payload Fragment [0:1472]
r 2.06164 /NodeList/1/DeviceList/1/$ns3::PointToPointNetDevice/MacRx ns3::PppHeader (Point-to-Point Protocol: IP (0x0021)) ns3::Ipv4Header (tos 0x0 DSCP Default ECN Not-ECT ttl 64 id 1 protocol 17 offset (bytes) 1480 flags [none] length: 48 88.77.66.1 > 88.77.66.2) Payload Fragment [1472:1500]
+ 2.06857 /NodeList/0/DeviceList/1/$ns3::PointToPointNetDevice/TxQueue/Enqueue ns3::PppHeader (Point-to-Point Protocol: IP (0x0021)) ns3::Ipv4Header (tos 0x0 DSCP Default ECN Not-ECT ttl 64 id 3 protocol 17 offset (bytes) 0 flags [MF] length: 1500 88.77.66.1 > 88.77.66.2) ns3::UdpHeader (length: 1508 49153 > 8001) Payload Fragment [0:1472]
- 2.06857 /NodeList/0/DeviceList/1/$ns3::PointToPointNetDevice/TxQueue/Dequeue ns3::PppHeader (Point-to-Point Protocol: IP (0x0021)) ns3::Ipv4Header (tos 0x0 DSCP Default ECN Not-ECT ttl 64 id 3 protocol 17 offset (bytes) 0 flags [MF] length: 1500 88.77.66.1 > 88.77.66.2) ns3::UdpHeader (length: 1508 49153 > 8001) Payload Fragment [0:1472]
+ 2.06857 /NodeList/0/DeviceList/1/$ns3::PointToPointNetDevice/TxQueue/Enqueue ns3::PppHeader (Point-to-Point Protocol: IP (0x0021)) ns3::Ipv4Header (tos 0x0 DSCP Default ECN Not-ECT ttl 64 id 3 protocol 17 offset (bytes) 1480 flags [none] length: 48 88.77.66.1 > 88.77.66.2) Payload Fragment [1472:1500]
- 2.06891 /NodeList/0/DeviceList/1/$ns3::PointToPointNetDevice/TxQueue/Dequeue ns3::PppHeader (Point-to-Point Protocol: IP (0x0021)) ns3::Ipv4Header (tos 0x0 DSCP Default ECN Not-ECT ttl 64 id 3 protocol 17 offset (bytes) 1480 flags [none] length: 48 88.77.66.1 > 88.77.66.2) Payload Fragment [1472:1500]
r 2.07877 /NodeList/1/DeviceList/1/$ns3::PointToPointNetDevice/MacRx ns3::PppHeader (Point-to-Point Protocol: IP (0x0021)) ns3::Ipv4Header (tos 0x0 DSCP Default ECN Not-ECT ttl 64 id 2 protocol 17 offset (bytes) 0 flags [MF] length: 1500 88.77.66.1 > 88.77.66.2) ns3::UdpHeader (length: 1508 49153 > 8001) Payload Fragment [0:1472]
r 2.07878 /NodeList/1/DeviceList/1/$ns3::PointToPointNetDevice/MacRx ns3::PppHeader (Point-to-Point Protocol: IP (0x0021)) ns3::Ipv4Header (tos 0x0 DSCP Default ECN Not-ECT ttl 64 id 2 protocol 17 offset (bytes) 1480 flags [none] length: 48 88.77.66.1 > 88.77.66.2) Payload Fragment [1472:1500]
+ 2.08571 /NodeList/0/DeviceList/1/$ns3::PointToPointNetDevice/TxQueue/Enqueue ns3::PppHeader (Point-to-Point Protocol: IP (0x0021)) ns3::Ipv4Header (tos 0x0 DSCP Default ECN Not-ECT ttl 64 id 4 protocol 17 offset (bytes) 0 flags [MF] length: 1500 88.77.66.1 > 88.77.66.2) ns3::UdpHeader (length: 1508 49153 > 8001) Payload Fragment [0:1472]
- 2.08571 /NodeList/0/DeviceList/1/$ns3::PointToPointNetDevice/TxQueue/Dequeue ns3::PppHeader (Point-to-Point Protocol: IP (0x0021)) ns3::Ipv4Header (tos 0x0 DSCP Default ECN Not-ECT ttl 64 id 4 protocol 17 offset (bytes) 0 flags [MF] length: 1500 88.77.66.1 > 88.77.66.2) ns3::UdpHeader (length: 1508 49153 > 8001) Payload Fragment [0:1472]
+ 2.08571 /NodeList/0/DeviceList/1/$ns3::PointToPointNetDevice/TxQueue/Enqueue ns3::PppHeader (Point-to-Point Protocol: IP (0x0021)) ns3::Ipv4Header (tos 0x0 DSCP Default ECN Not-ECT ttl 64 id 4 protocol 17 offset (bytes) 1480 flags [none] length: 48 88.77.66.1 > 88.77.66.2) Payload Fragment [1472:1500]
- 2.08606 /NodeList/0/DeviceList/1/$ns3::PointToPointNetDevice/TxQueue/Dequeue ns3::PppHeader (Point-to-Point Protocol: IP (0x0021)) ns3::Ipv4Header (tos 0x0 DSCP Default ECN Not-ECT ttl 64 id 4 protocol 17 offset (bytes) 1480 flags [none] length: 48 88.77.66.1 > 88.77.66.2) Payload Fragment [1472:1500]
r 2.09591 /NodeList/1/DeviceList/1/$ns3::PointToPointNetDevice/MacRx ns3::PppHeader (Point-to-Point Protocol: IP (0x0021)) ns3::Ipv4Header (tos 0x0 DSCP Default ECN Not-ECT ttl 64 id 3 protocol 17 offset (bytes) 0 flags [MF] length: 1500 88.77.66.1 > 88.77.66.2) ns3::UdpHeader (length: 1508 49153 > 8001) Payload Fragment [0:1472]
r 2.09593 /NodeList/1/DeviceList/1/$ns3::PointToPointNetDevice/MacRx ns3::PppHeader (Point-to-Point Protocol: IP (0x0021)) ns3::Ipv4Header (tos 0x0 DSCP Default ECN Not-ECT ttl 64 id 3 protocol 17 offset (bytes) 1480 flags [none] length: 48 88.77.66.1 > 88.77.66.2) Payload Fragment [1472:1500]
+ 2.10286 /NodeList/0/DeviceList/1/$ns3::PointToPointNetDevice/TxQueue/Enqueue ns3::PppHeader (Point-to-Point Protocol: IP (0x0021)) ns3::Ipv4Header (tos 0x0 DSCP Default ECN Not-ECT ttl 64 id 5 protocol 17 offset (bytes) 0 flags [MF] length: 1500 88.77.66.1 > 88.77.66.2) ns3::UdpHeader (length: 1508 49153 > 8001) Payload Fragment [0:1472]
- 2.10286 /NodeList/0/DeviceList/1/$ns3::PointToPointNetDevice/TxQueue/Dequeue ns3::PppHeader (Point-to-Point Protocol: IP (0x0021)) ns3::Ipv4Header (tos 0x0 DSCP Default ECN Not-ECT ttl 64 id 5 protocol 17 offset (bytes) 0 flags [MF] length: 1500 88.77.66.1 > 88.77.66.2) ns3::UdpHeader (length: 1508 49153 > 8001) Payload Fragment [0:1472]
+ 2.10286 /NodeList/0/DeviceList/1/$ns3::PointToPointNetDevice/TxQueue/Enqueue ns3::PppHeader (Point-to-Point Protocol: IP (0x0021)) ns3::Ipv4Header (tos 0x0 DSCP Default ECN Not-ECT ttl 64 id 5 protocol 17 offset (bytes) 1480 flags [none] length: 48 88.77.66.1 > 88.77.66.2) Payload Fragment [1472:1500]
- 2.1032 /NodeList/0/DeviceList/1/$ns3::PointToPointNetDevice/TxQueue/Dequeue ns3::PppHeader (Point-to-Point Protocol: IP (0x0021)) ns3::Ipv4Header (tos 0x0 DSCP Default ECN Not-ECT ttl 64 id 5 protocol 17 offset (bytes) 1480 flags [none] length: 48 88.77.66.1 > 88.77.66.2) Payload Fragment [1472:1500]
r 2.11306 /NodeList/1/DeviceList/1/$ns3::PointToPointNetDevice/MacRx ns3::PppHeader (Point-to-Point Protocol: IP (0x0021)) ns3::Ipv4Header (tos 0x0 DSCP Default ECN Not-ECT ttl 64 id 4 protocol 17 offset (bytes) 0 flags [MF] length: 1500 88.77.66.1 > 88.77.66.2) ns3::UdpHeader (length: 1508 49153 > 8001) Payload Fragment [0:1472]
r 2.11307 /NodeList/1/DeviceList/1/$ns3::PointToPointNetDevice/MacRx ns3::PppHeader (Point-to-Point Protocol: IP (0x0021)) ns3::Ipv4Header (tos 0x0 DSCP Default ECN Not-ECT ttl 64 id 4 protocol 17 offset (bytes) 1480 flags [none] length: 48 88.77.66.1 > 88.77.66.2) Payload Fragment [1472:1500]
+ 2.12 /NodeList/0/DeviceList/1/$ns3::PointToPointNetDevice/TxQueue/Enqueue ns3::PppHeader (Point-to-Point Protocol: IP (0x0021)) ns3::Ipv4Header (tos 0x0 DSCP Default ECN Not-ECT ttl 64 id 6 protocol 17 offset (bytes) 0 flags [MF] length: 1500 88.77.66.1 > 88.77.66.2) ns3::UdpHeader (length: 1508 49153 > 8001) Payload Fragment [0:1472]
- 2.12 /NodeList/0/DeviceList/1/$ns3::PointToPointNetDevice/TxQueue/Dequeue ns3::PppHeader (Point-to-Point Protocol: IP (0x0021)) ns3::Ipv4Header (tos 0x0 DSCP Default ECN Not-ECT ttl 64 id 6 protocol 17 offset (bytes) 0 flags [MF] length: 1500 88.77.66.1 > 88.77.66.2) ns3::UdpHeader (length: 1508 49153 > 8001) Payload Fragment [0:1472]
+ 2.12 /NodeList/0/DeviceList/1/$ns3::PointToPointNetDevice/TxQueue/Enqueue ns3::PppHeader (Point-to-Point Protocol: IP (0x0021)) ns3::Ipv4Header (tos 0x0 DSCP Default ECN Not-ECT ttl 64 id 6 protocol 17 offset (bytes) 1480 flags [none] length: 48 88.77.66.1 > 88.77.66.2) Payload Fragment [1472:1500]
- 2.12034 /NodeList/0/DeviceList/1/$ns3::PointToPointNetDevice/TxQueue/Dequeue ns3::PppHeader (Point-to-Point Protocol: IP (0x0021)) ns3::Ipv4Header (tos 0x0 DSCP Default ECN Not-ECT ttl 64 id 6 protocol 17 offset (bytes) 1480 flags [none] length: 48 88.77.66.1 > 88.77.66.2) Payload Fragment [1472:1500]
r 2.1302 /NodeList/1/DeviceList/1/$ns3::PointToPointNetDevice/MacRx ns3::PppHeader (Point-to-Point Protocol: IP (0x0021)) ns3::Ipv4Header (tos 0x0 DSCP Default ECN Not-ECT ttl 64 id 5 protocol 17 offset (bytes) 0 flags [MF] length: 1500 88.77.66.1 > 88.77.66.2) ns3::UdpHeader (length: 1508 49153 > 8001) Payload Fragment [0:1472]
r 2.13021 /NodeList/1/DeviceList/1/$ns3::PointToPointNetDevice/MacRx ns3::PppHeader (Point-to-Point Protocol: IP (0x0021)) ns3::Ipv4Header (tos 0x0 DSCP Default ECN Not-ECT ttl 64 id 5 protocol 17 offset (bytes) 1480 flags [none] length: 48 88.77.66.1 > 88.77.66.2) Payload Fragment [1472:1500]
+ 2.13714 /NodeList/0/DeviceList/1/$ns3::PointToPointNetDevice/TxQueue/Enqueue ns3::PppHeader (Point-to-Point Protocol: IP (0x0021)) ns3::Ipv4Header (tos 0x0 DSCP Default ECN Not-ECT ttl 64 id 7 protocol 17 offset (bytes) 0 flags [MF] length: 1500 88.77.66.1 > 88.77.66.2) ns3::UdpHeader (length: 1508 49153 > 8001) Payload Fragment [0:1472]
- 2.13714 /NodeList/0/DeviceList/1/$ns3::PointToPointNetDevice/TxQueue/Dequeue ns3::PppHeader (Point-to-Point Protocol: IP (0x0021)) ns3::Ipv4Header (tos 0x0 DSCP Default ECN Not-ECT ttl 64 id 7 protocol 17 offset (bytes) 0 flags [MF] length: 1500 88.77.66.1 > 88.77.66.2) ns3::UdpHeader (length: 1508 49153 > 8001) Payload Fragment [0:1472]
+ 2.13714 /NodeList/0/DeviceList/1/$ns3::PointToPointNetDevice/TxQueue/Enqueue ns3::PppHeader (Point-to-Point Protocol: IP (0x0021)) ns3::Ipv4Header (tos 0x0 DSCP Default ECN Not-ECT ttl 64 id 7 protocol 17 offset (bytes) 1480 flags [none] length: 48 88.77.66.1 > 88.77.66.2) Payload Fragment [1472:1500]
- 2.13749 /NodeList/0/DeviceList/1/$ns3::PointToPointNetDevice/TxQueue/Dequeue ns3::PppHeader (Point-to-Point Protocol: IP (0x0021)) ns3::Ipv4Header (tos 0x0 DSCP Default ECN Not-ECT ttl 64 id 7 protocol 17 offset (bytes) 1480 flags [none] length: 48 88.77.66.1 > 88.77.66.2) Payload Fragment [1472:1500]
r 2.14734 /NodeList/1/DeviceList/1/$ns3::PointToPointNetDevice/MacRx ns3::PppHeader (Point-to-Point Protocol: IP (0x0021)) ns3::Ipv4Header (tos 0x0 DSCP Default ECN Not-ECT ttl 64 id 6 protocol 17 offset (bytes) 0 flags [MF] length: 1500 88.77.66.1 > 88.77.66.2) ns3::UdpHeader (length: 1508 49153 > 8001) Payload Fragment [0:1472]
r 2.14735 /NodeList/1/DeviceList/1/$ns3::PointToPointNetDevice/MacRx ns3::PppHeader (Point-to-Point Protocol: IP (0x0021)) ns3::Ipv4Header (tos 0x0 DSCP Default ECN Not-ECT ttl 64 id 6 protocol 17 offset (bytes) 1480 flags [none] length: 48 88.77.66.1 > 88.77.66.2) Payload Fragment [1472:1500]
+ 2.15429 /NodeList/0/DeviceList/1/$ns3::PointToPointNetDevice/TxQueue/Enqueue ns3::PppHeader (Point-to-Point Protocol: IP (0x0021)) ns3::Ipv4Header (tos 0x0 DSCP Default ECN Not-ECT ttl 64 id 8 protocol 17 offset (bytes) 0 flags [MF] length: 1500 88.77.66.1 > 88.77.66.2) ns3::UdpHeader (length: 1508 49153 > 8001) Payload Fragment [0:1472]
- 2.15429 /NodeList/0/DeviceList/1/$ns3::PointToPointNetDevice/TxQueue/Dequeue ns3::PppHeader (Point-to-Point Protocol: IP (0x0021)) ns3::Ipv4Header (tos 0x0 DSCP Default ECN Not-ECT ttl 64 id 8 protocol 17 offset (bytes) 0 flags [MF] length: 1500 88.77.66.1 > 88.77.66.2) ns3::UdpHeader (length: 1508 49153 > 8001) Payload Fragment [0:1472]
+ 2.15429 /NodeList/0/DeviceList/1/$ns3::PointToPointNetDevice/TxQueue/Enqueue ns3::PppHeader (Point-to-Point Protocol: IP (0x0021)) ns3::Ipv4Header (tos 0x0 DSCP Default ECN Not-ECT ttl 64 id 8 protocol 17 offset (bytes) 1480 flags [none] length: 48 88.77.66.1 > 88.77.66.2) Payload Fragment [1472:1500]
- 2.15463 /NodeList/0/DeviceList/1/$ns3::PointToPointNetDevice/TxQueue/Dequeue ns3::PppHeader (Point-to-Point Protocol: IP (0x0021)) ns3::Ipv4Header (tos 0x0 DSCP Default ECN Not-ECT ttl 64 id 8 protocol 17 offset (bytes) 1480 flags [none] length: 48 88.77.66.1 > 88.77.66.2) Payload Fragment [1472:1500]
r 2.16449 /NodeList/1/DeviceList/1/$ns3::PointToPointNetDevice/MacRx ns3::PppHeader (Point-to-Point Protocol: IP (0x0021)) ns3::Ipv4Header (tos 0x0 DSCP Default ECN Not-ECT ttl 64 id 7 protocol 17 offset (bytes) 0 flags [MF] length: 1500 88.77.66.1 > 88.77.66.2) ns3::UdpHeader (length: 1508 49153 > 8001) Payload Fragment [0:1472]
r 2.1645 /NodeList/1/DeviceList/1/$ns3::PointToPointNetDevice/MacRx ns3::PppHeader (Point-to-Point Protocol: IP (0x0021)) ns3::Ipv4Header (tos 0x0 DSCP Default ECN Not-ECT ttl 64 id 7 protocol 17 offset (bytes) 1480 flags [none] length: 48 88.77.66.1 > 88.77.66.2) Payload Fragment [1472:1500]
+ 2.17143 /NodeList/0/DeviceList/1/$ns3::PointToPointNetDevice/TxQueue/Enqueue ns3::PppHeader (Point-to-Point Protocol: IP (0x0021)) ns3::Ipv4Header (tos 0x0 DSCP Default ECN Not-ECT ttl 64 id 9 protocol 17 offset (bytes) 0 flags [MF] length: 1500 88.77.66.1 > 88.77.66.2) ns3::UdpHeader (length: 1508 49153 > 8001) Payload Fragment [0:1472]
- 2.17143 /NodeList/0/DeviceList/1/$ns3::PointToPointNetDevice/TxQueue/Dequeue ns3::PppHeader (Point-to-Point Protocol: IP (0x0021)) ns3::Ipv4Header (tos 0x0 DSCP Default ECN Not-ECT ttl 64 id 9 protocol 17 offset (bytes) 0 flags [MF] length: 1500 88.77.66.1 > 88.77.66.2) ns3::UdpHeader (length: 1508 49153 > 8001) Payload Fragment [0:1472]
+ 2.17143 /NodeList/0/DeviceList/1/$ns3::PointToPointNetDevice/TxQueue/Enqueue ns3::PppHeader (Point-to-Point Protocol: IP (0x0021)) ns3::Ipv4Header (tos 0x0 DSCP Default ECN Not-ECT ttl 64 id 9 protocol 17 offset (bytes) 1480 flags [none] length: 48 88.77.66.1 > 88.77.66.2) Payload Fragment [1472:1500]
- 2.17177 /NodeList/0/DeviceList/1/$ns3::PointToPointNetDevice/TxQueue/Dequeue ns3::PppHeader (Point-to-Point Protocol: IP (0x0021)) ns3::Ipv4Header (tos 0x0 DSCP Default ECN Not-ECT ttl 64 id 9 protocol 17 offset (bytes) 1480 flags [none] length: 48 88.77.66.1 > 88.77.66.2) Payload Fragment [1472:1500]
r 2.18163 /NodeList/1/DeviceList/1/$ns3::PointToPointNetDevice/MacRx ns3::PppHeader (Point-to-Point Protocol: IP (0x0021)) ns3::Ipv4Header (tos 0x0 DSCP Default ECN Not-ECT ttl 64 id 8 protocol 17 offset (bytes) 0 flags [MF] length: 1500 88.77.66.1 > 88.77.66.2) ns3::UdpHeader (length: 1508 49153 > 8001) Payload Fragment [0:1472]
r 2.18164 /NodeList/1/DeviceList/1/$ns3::PointToPointNetDevice/MacRx ns3::PppHeader (Point-to-Point Protocol: IP (0x0021)) ns3::Ipv4Header (tos 0x0 DSCP Default ECN Not-ECT ttl 64 id 8 protocol 17 offset (bytes) 1480 flags [none] length: 48 88.77.66.1 > 88.77.66.2) Payload Fragment [1472:1500]
+ 2.18857 /NodeList/0/DeviceList/1/$ns3::PointToPointNetDevice/TxQueue/Enqueue ns3::PppHeader (Point-to-Point Protocol: IP (0x0021)) ns3::Ipv4Header (tos 0x0 DSCP Default ECN Not-ECT ttl 64 id 10 protocol 17 offset (bytes) 0 flags [MF] length: 1500 88.77.66.1 > 88.77.66.2) ns3::UdpHeader (length: 1508 49153 > 8001) Payload Fragment [0:1472]
- 2.18857 /NodeList/0/DeviceList/1/$ns3::PointToPointNetDevice/TxQueue/Dequeue ns3::PppHeader (Point-to-Point Protocol: IP (0x0021)) ns3::Ipv4Header (tos 0x0 DSCP Default ECN Not-ECT ttl 64 id 10 protocol 17 offset (bytes) 0 flags [MF] length: 1500 88.77.66.1 > 88.77.66.2) ns3::UdpHeader (length: 1508 49153 > 8001) Payload Fragment [0:1472]
+ 2.18857 /NodeList/0/DeviceList/1/$ns3::PointToPointNetDevice/TxQueue/Enqueue ns3::PppHeader (Point-to-Point Protocol: IP (0x0021)) ns3::Ipv4Header (tos 0x0 DSCP Default ECN Not-ECT ttl 64 id 10 protocol 17 offset (bytes) 1480 flags [none] length: 48 88.77.66.1 > 88.77.66.2) Payload Fragment [1472:1500]
- 2.18891 /NodeList/0/DeviceList/1/$ns3::PointToPointNetDevice/TxQueue/Dequeue ns3::PppHeader (Point-to-Point Protocol: IP (0x0021)) ns3::Ipv4Header (tos 0x0 DSCP Default ECN Not-ECT ttl 64 id 10 protocol 17 offset (bytes) 1480 flags [none] length: 48 88.77.66.1 > 88.77.66.2) Payload Fragment [1472:1500]
r 2.19877 /NodeList/1/DeviceList/1/$ns3::PointToPointNetDevice/MacRx ns3::PppHeader (Point-to-Point Protocol: IP (0x0021)) ns3::Ipv4Header (tos 0x0 DSCP Default ECN Not-ECT ttl 64 id 9 protocol 17 offset (bytes) 0 flags [MF] length: 1500 88.77.66.1 > 88.77.66.2) ns3::UdpHeader (length: 1508 49153 > 8001) Payload Fragment [0:1472]
r 2.19878 /NodeList/1/DeviceList/1/$ns3::PointToPointNetDevice/MacRx ns3::PppHeader (Point-to-Point Protocol: IP (0x0021)) ns3::Ipv4Header (tos 0x0 DSCP Default ECN Not-ECT ttl 64 id 9 protocol 17 offset (bytes) 1480 flags [none] length: 48 88.77.66.1 > 88.77.66.2) Payload Fragment [1472:1500]
+ 2.20571 /NodeList/0/DeviceList/1/$ns3::PointToPointNetDevice/TxQueue/Enqueue ns3::PppHeader (Point-to-Point Protocol: IP (0x0021)) ns3::Ipv4Header (tos 0x0 DSCP Default ECN Not-ECT ttl 64 id 11 protocol 17 offset (bytes) 0 flags [MF] length: 1500 88.77.66.1 > 88.77.66.2) ns3::UdpHeader (length: 1508 49153 > 8001) Payload Fragment [0:1472]
- 2.20571 /NodeList/0/DeviceList/1/$ns3::PointToPointNetDevice/TxQueue/Dequeue ns3::PppHeader (Point-to-Point Protocol: IP (0x0021)) ns3::Ipv4Header (tos 0x0 DSCP Default ECN Not-ECT ttl 64 id 11 protocol 17 offset (bytes) 0 flags [MF] length: 1500 88.77.66.1 > 88.77.66.2) ns3::UdpHeader (length: 1508 49153 > 8001) Payload Fragment [0:1472]
+ 2.20571 /NodeList/0/DeviceList/1/$ns3::PointToPointNetDevice/TxQueue/Enqueue ns3::PppHeader (Point-to-Point Protocol: IP (0x0021)) ns3::Ipv4Header (tos 0x0 DSCP Default ECN Not-ECT ttl 64 id 11 protocol 17 offset (bytes) 1480 flags [none] length: 48 88.77.66.1 > 88.77.66.2) Payload Fragment [1472:1500]
- 2.20606 /NodeList/0/DeviceList/1/$ns3::PointToPointNetDevice/TxQueue/Dequeue ns3::PppHeader (Point-to-Point Protocol: IP (0x0021)) ns3::Ipv4Header (tos 0x0 DSCP Default ECN Not-ECT ttl 64 id 11 protocol 17 offset (bytes) 1480 flags [none] length: 48 88.77.66.1 > 88.77.66.2) Payload Fragment [1472:1500]
r 2.21591 /NodeList/1/DeviceList/1/$ns3::PointToPointNetDevice/MacRx ns3::PppHeader (Point-to-Point Protocol: IP (0x0021)) ns3::Ipv4Header (tos 0x0 DSCP Default ECN Not-ECT ttl 64 id 10 protocol 17 offset (bytes) 0 flags [MF] length: 1500 88.77.66.1 > 88.77.66.2) ns3::UdpHeader (length: 1508 49153 > 8001) Payload Fragment [0:1472]
r 2.21593 /NodeList/1/DeviceList/1/$ns3::PointToPointNetDevice/MacRx ns3::PppHeader (Point-to-Point Protocol: IP (0x0021)) ns3::Ipv4Header (tos 0x0 DSCP Default ECN Not-ECT ttl 64 id 10 protocol 17 offset (bytes) 1480 flags [none] length: 48 88.77.66.1 > 88.77.66.2) Payload Fragment [1472:1500]
+ 2.22286 /NodeList/0/DeviceList/1/$ns3::PointToPointNetDevice/TxQueue/Enqueue ns3::PppHeader (Point-to-Point Protocol: IP (0x0021)) ns3::Ipv4Header (tos 0x0 DSCP Default ECN Not-ECT ttl 64 id 12 protocol 17 offset (bytes) 0 flags [MF] length: 1500 88.77.66.1 > 88.77.66.2) ns3::UdpHeader (length: 1508 49153 > 8001) Payload Fragment [0:1472]
- 2.22286 /NodeList/0/DeviceList/1/$ns3::PointToPointNetDevice/TxQueue/Dequeue ns3::PppHeader (Point-to-Point Protocol: IP (0x0021)) ns3::Ipv4Header (tos 0x0 DSCP Default ECN Not-ECT ttl 64 id 12 protocol 17 offset (bytes) 0 flags [MF] length: 1500 88.77.66.1 > 88.77.66.2) ns3::UdpHeader (length: 1508 49153 > 8001) Payload Fragment [0:1472]
+ 2.22286 /NodeList/0/DeviceList/1/$ns3::PointToPointNetDevice/TxQueue/Enqueue ns3::PppHeader (Point-to-Point Protocol: IP (0x0021)) ns3::Ipv4Header (tos 0x0 DSCP Default ECN Not-ECT ttl 64 id 12 protocol 17 offset (bytes) 1480 flags [none] length: 48 88.77.66.1 > 88.77.66.2) Payload Fragment [1472:1500]
- 2.2232 /NodeList/0/DeviceList/1/$ns3::PointToPointNetDevice/TxQueue/Dequeue ns3::PppHeader (Point-to-Point Protocol: IP (0x0021)) ns3::Ipv4Header (tos 0x0 DSCP Default ECN Not-ECT ttl 64 id 12 protocol 17 offset (bytes) 1480 flags [none] length: 48 88.77.66.1 > 88.77.66.2) Payload Fragment [1472:1500]
r 2.23306 /NodeList/1/DeviceList/1/$ns3::PointToPointNetDevice/MacRx ns3::PppHeader (Point-to-Point Protocol: IP (0x0021)) ns3::Ipv4Header (tos 0x0 DSCP Default ECN Not-ECT ttl 64 id 11 protocol 17 offset (bytes) 0 flags [MF] length: 1500 88.77.66.1 > 88.77.66.2) ns3::UdpHeader (length: 1508 49153 > 8001) Payload Fragment [0:1472]
r 2.23307 /NodeList/1/DeviceList/1/$ns3::PointToPointNetDevice/MacRx ns3::PppHeader (Point-to-Point Protocol: IP (0x0021)) ns3::Ipv4Header (tos 0x0 DSCP Default ECN Not-ECT ttl 64 id 11 protocol 17 offset (bytes) 1480 flags [none] length: 48 88.77.66.1 > 88.77.66.2) Payload Fragment [1472:1500]
+ 2.24 /NodeList/0/DeviceList/1/$ns3::PointToPointNetDevice/TxQueue/Enqueue ns3::PppHeader (Point-to-Point Protocol: IP (0x0021)) ns3::Ipv4Header (tos 0x0 DSCP Default ECN Not-ECT ttl 64 id 13 protocol 17 offset (bytes) 0 flags [MF] length: 1500 88.77.66.1 > 88.77.66.2) ns3::UdpHeader (length: 1508 49153 > 8001) Payload Fragment [0:1472]
- 2.24 /NodeList/0/DeviceList/1/$ns3::PointToPointNetDevice/TxQueue/Dequeue ns3::PppHeader (Point-to-Point Protocol: IP (0x0021)) ns3::Ipv4Header (tos 0x0 DSCP Default ECN Not-ECT ttl 64 id 13 protocol 17 offset (bytes) 0 flags [MF] length: 1500 88.77.66.1 > 88.77.66.2) ns3::UdpHeader (length: 1508 49153 > 8001) Payload Fragment [0:1472]
+ 2.24 /NodeList/0/DeviceList/1/$ns3::PointToPointNetDevice/TxQueue/Enqueue ns3::PppHeader (Point-to-Point Protocol: IP (0x0021)) ns3::Ipv4Header (tos 0x0 DSCP Default ECN Not-ECT ttl 64 id 13 protocol 17 offset (bytes) 1480 flags [none] length: 48 88.77.66.1 > 88.77.66.2) Payload Fragment [1472:1500]
- 2.24034 /NodeList/0/DeviceList/1/$ns3::PointToPointNetDevice/TxQueue/Dequeue ns3::PppHeader (Point-to-Point Protocol: IP (0x0021)) ns3::Ipv4Header (tos 0x0 DSCP Default ECN Not-ECT ttl 64 id 13 protocol 17 offset (bytes) 1480 flags [none] length: 48 88.77.66.1 > 88.77.66.2) Payload Fragment [1472:1500]
r 2.2502 /NodeList/1/DeviceList/1/$ns3::PointToPointNetDevice/MacRx ns3::PppHeader (Point-to-Point Protocol: IP (0x0021)) ns3::Ipv4Header (tos 0x0 DSCP Default ECN Not-ECT ttl 64 id 12 protocol 17 offset (bytes) 0 flags [MF] length: 1500 88.77.66.1 > 88.77.66.2) ns3::UdpHeader (length: 1508 49153 > 8001) Payload Fragment [0:1472]
r 2.25021 /NodeList/1/DeviceList/1/$ns3::PointToPointNetDevice/MacRx ns3::PppHeader (Point-to-Point Protocol: IP (0x0021)) ns3::Ipv4Header (tos 0x0 DSCP Default ECN Not-ECT ttl 64 id 12 protocol 17 offset (bytes) 1480 flags [none] length: 48 88.77.66.1 > 88.77.66.2) Payload Fragment [1472:1500]
+ 2.25714 /NodeList/0/DeviceList/1/$ns3::PointToPointNetDevice/TxQueue/Enqueue ns3::PppHeader (Point-to-Point Protocol: IP (0x0021)) ns3::Ipv4Header (tos 0x0 DSCP Default ECN Not-ECT ttl 64 id 14 protocol 17 offset (bytes) 0 flags [MF] length: 1500 88.77.66.1 > 88.77.66.2) ns3::UdpHeader (length: 1508 49153 > 8001) Payload Fragment [0:1472]
- 2.25714 /NodeList/0/DeviceList/1/$ns3::PointToPointNetDevice/TxQueue/Dequeue ns3::PppHeader (Point-to-Point Protocol: IP (0x0021)) ns3::Ipv4Header (tos 0x0 DSCP Default ECN Not-ECT ttl 64 id 14 protocol 17 offset (bytes) 0 flags [MF] length: 1500 88.77.66.1 > 88.77.66.2) ns3::UdpHeader (length: 1508 49153 > 8001) Payload Fragment [0:1472]
+ 2.25714 /NodeList/0/DeviceList/1/$ns3::PointToPointNetDevice/TxQueue/Enqueue ns3::PppHeader (Point-to-Point Protocol: IP (0x0021)) ns3::Ipv4Header (tos 0x0 DSCP Default ECN Not-ECT ttl 64 id 14 protocol 17 offset (bytes) 1480 flags [none] length: 48 88.77.66.1 > 88.77.66.2) Payload Fragment [1472:1500]
- 2.25749 /NodeList/0/DeviceList/1/$ns3::PointToPointNetDevice/TxQueue/Dequeue ns3::PppHeader (Point-to-Point Protocol: IP (0x0021)) ns3::Ipv4Header (tos 0x0 DSCP Default ECN Not-ECT ttl 64 id 14 protocol 17 offset (bytes) 1480 flags [none] length: 48 88.77.66.1 > 88.77.66.2) Payload Fragment [1472:1500]
r 2.26734 /NodeList/1/DeviceList/1/$ns3::PointToPointNetDevice/MacRx ns3::PppHeader (Point-to-Point Protocol: IP (0x0021)) ns3::Ipv4Header (tos 0x0 DSCP Default ECN Not-ECT ttl 64 id 13 protocol 17 offset (bytes) 0 flags [MF] length: 1500 88.77.66.1 > 88.77.66.2) ns3::UdpHeader (length: 1508 49153 > 8001) Payload Fragment [0:1472]
r 2.26735 /NodeList/1/DeviceList/1/$ns3::PointToPointNetDevice/MacRx ns3::PppHeader (Point-to-Point Protocol: IP (0x0021)) ns3::Ipv4Header (tos 0x0 DSCP Default ECN Not-ECT ttl 64 id 13 protocol 17 offset (bytes) 1480 flags [none] length: 48 88.77.66.1 > 88.77.66.2) Payload Fragment [1472:1500]
+ 2.27429 /NodeList/0/DeviceList/1/$ns3::PointToPointNetDevice/TxQueue/Enqueue ns3::PppHeader (Point-to-Point Protocol: IP (0x0021)) ns3::Ipv4Header (tos 0x0 DSCP Default ECN Not-ECT ttl 64 id 15 protocol 17 offset (bytes) 0 flags [MF] length: 1500 88.77.66.1 > 88.77.66.2) ns3::UdpHeader (length: 1508 49153 > 8001) Payload Fragment [0:1472]
- 2.27429 /NodeList/0/DeviceList/1/$ns3::PointToPointNetDevice/TxQueue/Dequeue ns3::PppHeader (Point-to-Point Protocol: IP (0x0021)) ns3::Ipv4Header (tos 0x0 DSCP Default ECN Not-ECT ttl 64 id 15 protocol 17 offset (bytes) 0 flags [MF] length: 1500 88.77.66.1 > 88.77.66.2) ns3::UdpHeader (length: 1508 49153 > 8001) Payload Fragment [0:1472]
+ 2.27429 /NodeList/0/DeviceList/1/$ns3::PointToPointNetDevice/TxQueue/Enqueue ns3::PppHeader (Point-to-Point Protocol: IP (0x0021)) ns3::Ipv4Header (tos 0x0 DSCP Default ECN Not-ECT ttl 64 id 15 protocol 17 offset (bytes) 1480 flags [none] length: 48 88.77.66.1 > 88.77.66.2) Payload Fragment [1472:1500]
- 2.27463 /NodeList/0/DeviceList/1/$ns3::PointToPointNetDevice/TxQueue/Dequeue ns3::PppHeader (Point-to-Point Protocol: IP (0x0021)) ns3::Ipv4Header (tos 0x0 DSCP Default ECN Not-ECT ttl 64 id 15 protocol 17 offset (bytes) 1480 flags [none] length: 48 88.77.66.1 > 88.77.66.2) Payload Fragment [1472:1500]
r 2.28449 /NodeList/1/DeviceList/1/$ns3::PointToPointNetDevice/MacRx ns3::PppHeader (Point-to-Point Protocol: IP (0x0021)) ns3::Ipv4Header (tos 0x0 DSCP Default ECN Not-ECT ttl 64 id 14 protocol 17 offset (bytes) 0 flags [MF] length: 1500 88.77.66.1 > 88.77.66.2) ns3::UdpHeader (length: 1508 49153 > 8001) Payload Fragment [0:1472]