+ 2.0174 /NodeList/1/DeviceList/1/$ns3::CsmaNetDevice/TxQueue/Enqueue ns3::EthernetHeader ( length/type=0x806, source=00:00:00:00:00:03, destination=ff:ff:ff:ff:ff:ff) ns3::ArpHeader (request source mac: 00-06-00:00:00:00:00:03 source ipv4: 10.1.2.1 dest ipv4: 10.1.2.11) Payload (size=18) ns3::EthernetTrailer (fcs=0)
- 2.0174 /NodeList/1/DeviceList/1/$ns3::CsmaNetDevice/TxQueue/Dequeue ns3::EthernetHeader ( length/type=0x806, source=00:00:00:00:00:03, destination=ff:ff:ff:ff:ff:ff) ns3::ArpHeader (request source mac: 00-06-00:00:00:00:00:03 source ipv4: 10.1.2.1 dest ipv4: 10.1.2.11) Payload (size=18) ns3::EthernetTrailer (fcs=0)
r 2.03241 /NodeList/2/DeviceList/0/$ns3::CsmaNetDevice/MacRx ns3::EthernetHeader ( length/type=0x806, source=00:00:00:00:00:03, destination=ff:ff:ff:ff:ff:ff) ns3::ArpHeader (request source mac: 00-06-00:00:00:00:00:03 source ipv4: 10.1.2.1 dest ipv4: 10.1.2.11) Payload (size=18) ns3::EthernetTrailer (fcs=0)
r 2.03241 /NodeList/3/DeviceList/0/$ns3::CsmaNetDevice/MacRx ns3::EthernetHeader ( length/type=0x806, source=00:00:00:00:00:03, destination=ff:ff:ff:ff:ff:ff) ns3::ArpHeader (request source mac: 00-06-00:00:00:00:00:03 source ipv4: 10.1.2.1 dest ipv4: 10.1.2.11) Payload (size=18) ns3::EthernetTrailer (fcs=0)
r 2.03241 /NodeList/4/DeviceList/0/$ns3::CsmaNetDevice/MacRx ns3::EthernetHeader ( length/type=0x806, source=00:00:00:00:00:03, destination=ff:ff:ff:ff:ff:ff) ns3::ArpHeader (request source mac: 00-06-00:00:00:00:00:03 source ipv4: 10.1.2.1 dest ipv4: 10.1.2.11) Payload (size=18) ns3::EthernetTrailer (fcs=0)
r 2.03241 /NodeList/5/DeviceList/0/$ns3::CsmaNetDevice/MacRx ns3::EthernetHeader ( length/type=0x806, source=00:00:00:00:00:03, destination=ff:ff:ff:ff:ff:ff) ns3::ArpHeader (request source mac: 00-06-00:00:00:00:00:03 source ipv4: 10.1.2.1 dest ipv4: 10.1.2.11) Payload (size=18) ns3::EthernetTrailer (fcs=0)
r 2.03241 /NodeList/6/DeviceList/0/$ns3::CsmaNetDevice/MacRx ns3::EthernetHeader ( length/type=0x806, source=00:00:00:00:00:03, destination=ff:ff:ff:ff:ff:ff) ns3::ArpHeader (request source mac: 00-06-00:00:00:00:00:03 source ipv4: 10.1.2.1 dest ipv4: 10.1.2.11) Payload (size=18) ns3::EthernetTrailer (fcs=0)
r 2.03241 /NodeList/7/DeviceList/0/$ns3::CsmaNetDevice/MacRx ns3::EthernetHeader ( length/type=0x806, source=00:00:00:00:00:03, destination=ff:ff:ff:ff:ff:ff) ns3::ArpHeader (request source mac: 00-06-00:00:00:00:00:03 source ipv4: 10.1.2.1 dest ipv4: 10.1.2.11) Payload (size=18) ns3::EthernetTrailer (fcs=0)
r 2.03241 /NodeList/8/DeviceList/0/$ns3::CsmaNetDevice/MacRx ns3::EthernetHeader ( length/type=0x806, source=00:00:00:00:00:03, destination=ff:ff:ff:ff:ff:ff) ns3::ArpHeader (request source mac: 00-06-00:00:00:00:00:03 source ipv4: 10.1.2.1 dest ipv4: 10.1.2.11) Payload (size=18) ns3::EthernetTrailer (fcs=0)
r 2.03241 /NodeList/9/DeviceList/0/$ns3::CsmaNetDevice/MacRx ns3::EthernetHeader ( length/type=0x806, source=00:00:00:00:00:03, destination=ff:ff:ff:ff:ff:ff) ns3::ArpHeader (request source mac: 00-06-00:00:00:00:00:03 source ipv4: 10.1.2.1 dest ipv4: 10.1.2.11) Payload (size=18) ns3::EthernetTrailer (fcs=0)
r 2.03241 /NodeList/10/DeviceList/0/$ns3::CsmaNetDevice/MacRx ns3::EthernetHeader ( length/type=0x806, source=00:00:00:00:00:03, destination=ff:ff:ff:ff:ff:ff) ns3::ArpHeader (request source mac: 00-06-00:00:00:00:00:03 source ipv4: 10.1.2.1 dest ipv4: 10.1.2.11) Payload (size=18) ns3::EthernetTrailer (fcs=0)
r 2.03241 /NodeList/11/DeviceList/0/$ns3::CsmaNetDevice/MacRx ns3::EthernetHeader ( length/type=0x806, source=00:00:00:00:00:03, destination=ff:ff:ff:ff:ff:ff) ns3::ArpHeader (request source mac: 00-06-00:00:00:00:00:03 source ipv4: 10.1.2.1 dest ipv4: 10.1.2.11) Payload (size=18) ns3::EthernetTrailer (fcs=0)
+ 2.03241 /NodeList/11/DeviceList/0/$ns3::CsmaNetDevice/TxQueue/Enqueue ns3::EthernetHeader ( length/type=0x806, source=00:00:00:00:00:0d, destination=00:00:00:00:00:03) ns3::ArpHeader (reply source mac: 00-06-00:00:00:00:00:0d source ipv4: 10.1.2.11 dest mac: 00-06-00:00:00:00:00:03 dest ipv4: 10.1.2.1) Payload (size=18) ns3::EthernetTrailer (fcs=0)
- 2.03241 /NodeList/11/DeviceList/0/$ns3::CsmaNetDevice/TxQueue/Dequeue ns3::EthernetHeader ( length/type=0x806, source=00:00:00:00:00:0d, destination=00:00:00:00:00:03) ns3::ArpHeader (reply source mac: 00-06-00:00:00:00:00:0d source ipv4: 10.1.2.11 dest mac: 00-06-00:00:00:00:00:03 dest ipv4: 10.1.2.1) Payload (size=18) ns3::EthernetTrailer (fcs=0)
r 2.04741 /NodeList/1/DeviceList/1/$ns3::CsmaNetDevice/MacRx ns3::EthernetHeader ( length/type=0x806, source=00:00:00:00:00:0d, destination=00:00:00:00:00:03) ns3::ArpHeader (reply source mac: 00-06-00:00:00:00:00:0d source ipv4: 10.1.2.11 dest mac: 00-06-00:00:00:00:00:03 dest ipv4: 10.1.2.1) Payload (size=18) ns3::EthernetTrailer (fcs=0)
+ 2.04741 /NodeList/1/DeviceList/1/$ns3::CsmaNetDevice/TxQueue/Enqueue ns3::EthernetHeader ( length/type=0x800, source=00:00:00:00:00:03, destination=00:00:00:00:00:0d) ns3::Ipv4Header (tos 0x0 DSCP Default ECN Not-ECT ttl 63 id 0 protocol 17 offset (bytes) 0 flags [MF] length: 1500 10.1.1.1 > 10.1.2.11) ns3::UdpHeader (length: 2056 49153 > 9) Payload Fragment [0:1472] ns3::EthernetTrailer (fcs=0)
- 2.04741 /NodeList/1/DeviceList/1/$ns3::CsmaNetDevice/TxQueue/Dequeue ns3::EthernetHeader ( length/type=0x800, source=00:00:00:00:00:03, destination=00:00:00:00:00:0d) ns3::Ipv4Header (tos 0x0 DSCP Default ECN Not-ECT ttl 63 id 0 protocol 17 offset (bytes) 0 flags [MF] length: 1500 10.1.1.1 > 10.1.2.11) ns3::UdpHeader (length: 2056 49153 > 9) Payload Fragment [0:1472] ns3::EthernetTrailer (fcs=0)
+ 2.04741 /NodeList/1/DeviceList/1/$ns3::CsmaNetDevice/TxQueue/Enqueue ns3::EthernetHeader ( length/type=0x800, source=00:00:00:00:00:03, destination=00:00:00:00:00:0d) ns3::Ipv4Header (tos 0x0 DSCP Default ECN Not-ECT ttl 63 id 0 protocol 17 offset (bytes) 1480 flags [none] length: 596 10.1.1.1 > 10.1.2.11) Payload Fragment [1472:2048] ns3::EthernetTrailer (fcs=0)
- 2.04754 /NodeList/1/DeviceList/1/$ns3::CsmaNetDevice/TxQueue/Dequeue ns3::EthernetHeader ( length/type=0x800, source=00:00:00:00:00:03, destination=00:00:00:00:00:0d) ns3::Ipv4Header (tos 0x0 DSCP Default ECN Not-ECT ttl 63 id 0 protocol 17 offset (bytes) 1480 flags [none] length: 596 10.1.1.1 > 10.1.2.11) Payload Fragment [1472:2048] ns3::EthernetTrailer (fcs=0)
r 2.06254 /NodeList/11/DeviceList/0/$ns3::CsmaNetDevice/MacRx ns3::EthernetHeader ( length/type=0x800, source=00:00:00:00:00:03, destination=00:00:00:00:00:0d) ns3::Ipv4Header (tos 0x0 DSCP Default ECN Not-ECT ttl 63 id 0 protocol 17 offset (bytes) 0 flags [MF] length: 1500 10.1.1.1 > 10.1.2.11) ns3::UdpHeader (length: 2056 49153 > 9) Payload Fragment [0:1472] ns3::EthernetTrailer (fcs=0)
r 2.078 /NodeList/11/DeviceList/0/$ns3::CsmaNetDevice/MacRx ns3::EthernetHeader ( length/type=0x800, source=00:00:00:00:00:03, destination=00:00:00:00:00:0d) ns3::Ipv4Header (tos 0x0 DSCP Default ECN Not-ECT ttl 63 id 0 protocol 17 offset (bytes) 1480 flags [none] length: 596 10.1.1.1 > 10.1.2.11) Payload Fragment [1472:2048] ns3::EthernetTrailer (fcs=0)
+ 2.08 /NodeList/11/DeviceList/0/$ns3::CsmaNetDevice/TxQueue/Enqueue ns3::EthernetHeader ( length/type=0x806, source=00:00:00:00:00:0d, destination=ff:ff:ff:ff:ff:ff) ns3::ArpHeader (request source mac: 00-06-00:00:00:00:00:0d source ipv4: 10.1.2.11 dest ipv4: 10.1.2.1) Payload (size=18) ns3::EthernetTrailer (fcs=0)
- 2.08 /NodeList/11/DeviceList/0/$ns3::CsmaNetDevice/TxQueue/Dequeue ns3::EthernetHeader ( length/type=0x806, source=00:00:00:00:00:0d, destination=ff:ff:ff:ff:ff:ff) ns3::ArpHeader (request source mac: 00-06-00:00:00:00:00:0d source ipv4: 10.1.2.11 dest ipv4: 10.1.2.1) Payload (size=18) ns3::EthernetTrailer (fcs=0)
r 2.095 /NodeList/1/DeviceList/1/$ns3::CsmaNetDevice/MacRx ns3::EthernetHeader ( length/type=0x806, source=00:00:00:00:00:0d, destination=ff:ff:ff:ff:ff:ff) ns3::ArpHeader (request source mac: 00-06-00:00:00:00:00:0d source ipv4: 10.1.2.11 dest ipv4: 10.1.2.1) Payload (size=18) ns3::EthernetTrailer (fcs=0)
+ 2.095 /NodeList/1/DeviceList/1/$ns3::CsmaNetDevice/TxQueue/Enqueue ns3::EthernetHeader ( length/type=0x806, source=00:00:00:00:00:03, destination=00:00:00:00:00:0d) ns3::ArpHeader (reply source mac: 00-06-00:00:00:00:00:03 source ipv4: 10.1.2.1 dest mac: 00-06-00:00:00:00:00:0d dest ipv4: 10.1.2.11) Payload (size=18) ns3::EthernetTrailer (fcs=0)
- 2.095 /NodeList/1/DeviceList/1/$ns3::CsmaNetDevice/TxQueue/Dequeue ns3::EthernetHeader ( length/type=0x806, source=00:00:00:00:00:03, destination=00:00:00:00:00:0d) ns3::ArpHeader (reply source mac: 00-06-00:00:00:00:00:03 source ipv4: 10.1.2.1 dest mac: 00-06-00:00:00:00:00:0d dest ipv4: 10.1.2.11) Payload (size=18) ns3::EthernetTrailer (fcs=0)
r 2.095 /NodeList/2/DeviceList/0/$ns3::CsmaNetDevice/MacRx ns3::EthernetHeader ( length/type=0x806, source=00:00:00:00:00:0d, destination=ff:ff:ff:ff:ff:ff) ns3::ArpHeader (request source mac: 00-06-00:00:00:00:00:0d source ipv4: 10.1.2.11 dest ipv4: 10.1.2.1) Payload (size=18) ns3::EthernetTrailer (fcs=0)
r 2.095 /NodeList/3/DeviceList/0/$ns3::CsmaNetDevice/MacRx ns3::EthernetHeader ( length/type=0x806, source=00:00:00:00:00:0d, destination=ff:ff:ff:ff:ff:ff) ns3::ArpHeader (request source mac: 00-06-00:00:00:00:00:0d source ipv4: 10.1.2.11 dest ipv4: 10.1.2.1) Payload (size=18) ns3::EthernetTrailer (fcs=0)
r 2.095 /NodeList/4/DeviceList/0/$ns3::CsmaNetDevice/MacRx ns3::EthernetHeader ( length/type=0x806, source=00:00:00:00:00:0d, destination=ff:ff:ff:ff:ff:ff) ns3::ArpHeader (request source mac: 00-06-00:00:00:00:00:0d source ipv4: 10.1.2.11 dest ipv4: 10.1.2.1) Payload (size=18) ns3::EthernetTrailer (fcs=0)
r 2.095 /NodeList/5/DeviceList/0/$ns3::CsmaNetDevice/MacRx ns3::EthernetHeader ( length/type=0x806, source=00:00:00:00:00:0d, destination=ff:ff:ff:ff:ff:ff) ns3::ArpHeader (request source mac: 00-06-00:00:00:00:00:0d source ipv4: 10.1.2.11 dest ipv4: 10.1.2.1) Payload (size=18) ns3::EthernetTrailer (fcs=0)
r 2.095 /NodeList/6/DeviceList/0/$ns3::CsmaNetDevice/MacRx ns3::EthernetHeader ( length/type=0x806, source=00:00:00:00:00:0d, destination=ff:ff:ff:ff:ff:ff) ns3::ArpHeader (request source mac: 00-06-00:00:00:00:00:0d source ipv4: 10.1.2.11 dest ipv4: 10.1.2.1) Payload (size=18) ns3::EthernetTrailer (fcs=0)
r 2.095 /NodeList/7/DeviceList/0/$ns3::CsmaNetDevice/MacRx ns3::EthernetHeader ( length/type=0x806, source=00:00:00:00:00:0d, destination=ff:ff:ff:ff:ff:ff) ns3::ArpHeader (request source mac: 00-06-00:00:00:00:00:0d source ipv4: 10.1.2.11 dest ipv4: 10.1.2.1) Payload (size=18) ns3::EthernetTrailer (fcs=0)
r 2.095 /NodeList/8/DeviceList/0/$ns3::CsmaNetDevice/MacRx ns3::EthernetHeader ( length/type=0x806, source=00:00:00:00:00:0d, destination=ff:ff:ff:ff:ff:ff) ns3::ArpHeader (request source mac: 00-06-00:00:00:00:00:0d source ipv4: 10.1.2.11 dest ipv4: 10.1.2.1) Payload (size=18) ns3::EthernetTrailer (fcs=0)
r 2.095 /NodeList/9/DeviceList/0/$ns3::CsmaNetDevice/MacRx ns3::EthernetHeader ( length/type=0x806, source=00:00:00:00:00:0d, destination=ff:ff:ff:ff:ff:ff) ns3::ArpHeader (request source mac: 00-06-00:00:00:00:00:0d source ipv4: 10.1.2.11 dest ipv4: 10.1.2.1) Payload (size=18) ns3::EthernetTrailer (fcs=0)
r 2.095 /NodeList/10/DeviceList/0/$ns3::CsmaNetDevice/MacRx ns3::EthernetHeader ( length/type=0x806, source=00:00:00:00:00:0d, destination=ff:ff:ff:ff:ff:ff) ns3::ArpHeader (request source mac: 00-06-00:00:00:00:00:0d source ipv4: 10.1.2.11 dest ipv4: 10.1.2.1) Payload (size=18) ns3::EthernetTrailer (fcs=0)
r 2.11001 /NodeList/11/DeviceList/0/$ns3::CsmaNetDevice/MacRx ns3::EthernetHeader ( length/type=0x806, source=00:00:00:00:00:03, destination=00:00:00:00:00:0d) ns3::ArpHeader (reply source mac: 00-06-00:00:00:00:00:03 source ipv4: 10.1.2.1 dest mac: 00-06-00:00:00:00:00:0d dest ipv4: 10.1.2.11) Payload (size=18) ns3::EthernetTrailer (fcs=0)
+ 2.11001 /NodeList/11/DeviceList/0/$ns3::CsmaNetDevice/TxQueue/Enqueue ns3::EthernetHeader ( length/type=0x800, source=00:00:00:00:00:0d, destination=00:00:00:00:00:03) ns3::Ipv4Header (tos 0x0 DSCP Default ECN Not-ECT ttl 64 id 0 protocol 17 offset (bytes) 0 flags [MF] length: 1500 10.1.2.11 > 10.1.1.1) ns3::UdpHeader (length: 2056 9 > 49153) Payload Fragment [0:1472] ns3::EthernetTrailer (fcs=0)
- 2.11001 /NodeList/11/DeviceList/0/$ns3::CsmaNetDevice/TxQueue/Dequeue ns3::EthernetHeader ( length/type=0x800, source=00:00:00:00:00:0d, destination=00:00:00:00:00:03) ns3::Ipv4Header (tos 0x0 DSCP Default ECN Not-ECT ttl 64 id 0 protocol 17 offset (bytes) 0 flags [MF] length: 1500 10.1.2.11 > 10.1.1.1) ns3::UdpHeader (length: 2056 9 > 49153) Payload Fragment [0:1472] ns3::EthernetTrailer (fcs=0)
+ 2.11001 /NodeList/11/DeviceList/0/$ns3::CsmaNetDevice/TxQueue/Enqueue ns3::EthernetHeader ( length/type=0x800, source=00:00:00:00:00:0d, destination=00:00:00:00:00:03) ns3::Ipv4Header (tos 0x0 DSCP Default ECN Not-ECT ttl 64 id 0 protocol 17 offset (bytes) 1480 flags [none] length: 596 10.1.2.11 > 10.1.1.1) Payload Fragment [1472:2048] ns3::EthernetTrailer (fcs=0)
- 2.11013 /NodeList/11/DeviceList/0/$ns3::CsmaNetDevice/TxQueue/Dequeue ns3::EthernetHeader ( length/type=0x800, source=00:00:00:00:00:0d, destination=00:00:00:00:00:03) ns3::Ipv4Header (tos 0x0 DSCP Default ECN Not-ECT ttl 64 id 0 protocol 17 offset (bytes) 1480 flags [none] length: 596 10.1.2.11 > 10.1.1.1) Payload Fragment [1472:2048] ns3::EthernetTrailer (fcs=0)
r 2.12513 /NodeList/1/DeviceList/1/$ns3::CsmaNetDevice/MacRx ns3::EthernetHeader ( length/type=0x800, source=00:00:00:00:00:0d, destination=00:00:00:00:00:03) ns3::Ipv4Header (tos 0x0 DSCP Default ECN Not-ECT ttl 64 id 0 protocol 17 offset (bytes) 0 flags [MF] length: 1500 10.1.2.11 > 10.1.1.1) ns3::UdpHeader (length: 2056 9 > 49153) Payload Fragment [0:1472] ns3::EthernetTrailer (fcs=0)
r 2.14075 /NodeList/1/DeviceList/1/$ns3::CsmaNetDevice/MacRx ns3::EthernetHeader ( length/type=0x800, source=00:00:00:00:00:0d, destination=00:00:00:00:00:03) ns3::Ipv4Header (tos 0x0 DSCP Default ECN Not-ECT ttl 64 id 0 protocol 17 offset (bytes) 1480 flags [none] length: 596 10.1.2.11 > 10.1.1.1) Payload Fragment [1472:2048] ns3::EthernetTrailer (fcs=0)
+ 3.0174 /NodeList/1/DeviceList/1/$ns3::CsmaNetDevice/TxQueue/Enqueue ns3::EthernetHeader ( length/type=0x800, source=00:00:00:00:00:03, destination=00:00:00:00:00:0d) ns3::Ipv4Header (tos 0x0 DSCP Default ECN Not-ECT ttl 63 id 1 protocol 17 offset (bytes) 0 flags [MF] length: 1500 10.1.1.1 > 10.1.2.11) ns3::UdpHeader (length: 2056 49153 > 9) Payload Fragment [0:1472] ns3::EthernetTrailer (fcs=0)
- 3.0174 /NodeList/1/DeviceList/1/$ns3::CsmaNetDevice/TxQueue/Dequeue ns3::EthernetHeader ( length/type=0x800, source=00:00:00:00:00:03, destination=00:00:00:00:00:0d) ns3::Ipv4Header (tos 0x0 DSCP Default ECN Not-ECT ttl 63 id 1 protocol 17 offset (bytes) 0 flags [MF] length: 1500 10.1.1.1 > 10.1.2.11) ns3::UdpHeader (length: 2056 49153 > 9) Payload Fragment [0:1472] ns3::EthernetTrailer (fcs=0)
+ 3.01836 /NodeList/1/DeviceList/1/$ns3::CsmaNetDevice/TxQueue/Enqueue ns3::EthernetHeader ( length/type=0x800, source=00:00:00:00:00:03, destination=00:00:00:00:00:0d) ns3::Ipv4Header (tos 0x0 DSCP Default ECN Not-ECT ttl 63 id 1 protocol 17 offset (bytes) 1480 flags [none] length: 596 10.1.1.1 > 10.1.2.11) Payload Fragment [1472:2048] ns3::EthernetTrailer (fcs=0)
- 3.01836 /NodeList/1/DeviceList/1/$ns3::CsmaNetDevice/TxQueue/Dequeue ns3::EthernetHeader ( length/type=0x800, source=00:00:00:00:00:03, destination=00:00:00:00:00:0d) ns3::Ipv4Header (tos 0x0 DSCP Default ECN Not-ECT ttl 63 id 1 protocol 17 offset (bytes) 1480 flags [none] length: 596 10.1.1.1 > 10.1.2.11) Payload Fragment [1472:2048] ns3::EthernetTrailer (fcs=0)
r 3.03252 /NodeList/11/DeviceList/0/$ns3::CsmaNetDevice/MacRx ns3::EthernetHeader ( length/type=0x800, source=00:00:00:00:00:03, destination=00:00:00:00:00:0d) ns3::Ipv4Header (tos 0x0 DSCP Default ECN Not-ECT ttl 63 id 1 protocol 17 offset (bytes) 0 flags [MF] length: 1500 10.1.1.1 > 10.1.2.11) ns3::UdpHeader (length: 2056 49153 > 9) Payload Fragment [0:1472] ns3::EthernetTrailer (fcs=0)
r 3.04758 /NodeList/11/DeviceList/0/$ns3::CsmaNetDevice/MacRx ns3::EthernetHeader ( length/type=0x800, source=00:00:00:00:00:03, destination=00:00:00:00:00:0d) ns3::Ipv4Header (tos 0x0 DSCP Default ECN Not-ECT ttl 63 id 1 protocol 17 offset (bytes) 1480 flags [none] length: 596 10.1.1.1 > 10.1.2.11) Payload Fragment [1472:2048] ns3::EthernetTrailer (fcs=0)
+ 3.04758 /NodeList/11/DeviceList/0/$ns3::CsmaNetDevice/TxQueue/Enqueue ns3::EthernetHeader ( length/type=0x800, source=00:00:00:00:00:0d, destination=00:00:00:00:00:03) ns3::Ipv4Header (tos 0x0 DSCP Default ECN Not-ECT ttl 64 id 1 protocol 17 offset (bytes) 0 flags [MF] length: 1500 10.1.2.11 > 10.1.1.1) ns3::UdpHeader (length: 2056 9 > 49153) Payload Fragment [0:1472] ns3::EthernetTrailer (fcs=0)
- 3.04758 /NodeList/11/DeviceList/0/$ns3::CsmaNetDevice/TxQueue/Dequeue ns3::EthernetHeader ( length/type=0x800, source=00:00:00:00:00:0d, destination=00:00:00:00:00:03) ns3::Ipv4Header (tos 0x0 DSCP Default ECN Not-ECT ttl 64 id 1 protocol 17 offset (bytes) 0 flags [MF] length: 1500 10.1.2.11 > 10.1.1.1) ns3::UdpHeader (length: 2056 9 > 49153) Payload Fragment [0:1472] ns3::EthernetTrailer (fcs=0)
+ 3.04758 /NodeList/11/DeviceList/0/$ns3::CsmaNetDevice/TxQueue/Enqueue ns3::EthernetHeader ( length/type=0x800, source=00:00:00:00:00:0d, destination=00:00:00:00:00:03) ns3::Ipv4Header (tos 0x0 DSCP Default ECN Not-ECT ttl 64 id 1 protocol 17 offset (bytes) 1480 flags [none] length: 596 10.1.2.11 > 10.1.1.1) Payload Fragment [1472:2048] ns3::EthernetTrailer (fcs=0)
- 3.04771 /NodeList/11/DeviceList/0/$ns3::CsmaNetDevice/TxQueue/Dequeue ns3::EthernetHeader ( length/type=0x800, source=00:00:00:00:00:0d, destination=00:00:00:00:00:03) ns3::Ipv4Header (tos 0x0 DSCP Default ECN Not-ECT ttl 64 id 1 protocol 17 offset (bytes) 1480 flags [none] length: 596 10.1.2.11 > 10.1.1.1) Payload Fragment [1472:2048] ns3::EthernetTrailer (fcs=0)
r 3.0627 /NodeList/1/DeviceList/1/$ns3::CsmaNetDevice/MacRx ns3::EthernetHeader ( length/type=0x800, source=00:00:00:00:00:0d, destination=00:00:00:00:00:03) ns3::Ipv4Header (tos 0x0 DSCP Default ECN Not-ECT ttl 64 id 1 protocol 17 offset (bytes) 0 flags [MF] length: 1500 10.1.2.11 > 10.1.1.1) ns3::UdpHeader (length: 2056 9 > 49153) Payload Fragment [0:1472] ns3::EthernetTrailer (fcs=0)
r 3.0784 /NodeList/1/DeviceList/1/$ns3::CsmaNetDevice/MacRx ns3::EthernetHeader ( length/type=0x800, source=00:00:00:00:00:0d, destination=00:00:00:00:00:03) ns3::Ipv4Header (tos 0x0 DSCP Default ECN Not-ECT ttl 64 id 1 protocol 17 offset (bytes) 1480 flags [none] length: 596 10.1.2.11 > 10.1.1.1) Payload Fragment [1472:2048] ns3::EthernetTrailer (fcs=0)
+ 4.0174 /NodeList/1/DeviceList/1/$ns3::CsmaNetDevice/TxQueue/Enqueue ns3::EthernetHeader ( length/type=0x800, source=00:00:00:00:00:03, destination=00:00:00:00:00:0d) ns3::Ipv4Header (tos 0x0 DSCP Default ECN Not-ECT ttl 63 id 2 protocol 17 offset (bytes) 0 flags [MF] length: 1500 10.1.1.1 > 10.1.2.11) ns3::UdpHeader (length: 2056 49153 > 9) Payload Fragment [0:1472] ns3::EthernetTrailer (fcs=0)
- 4.0174 /NodeList/1/DeviceList/1/$ns3::CsmaNetDevice/TxQueue/Dequeue ns3::EthernetHeader ( length/type=0x800, source=00:00:00:00:00:03, destination=00:00:00:00:00:0d) ns3::Ipv4Header (tos 0x0 DSCP Default ECN Not-ECT ttl 63 id 2 protocol 17 offset (bytes) 0 flags [MF] length: 1500 10.1.1.1 > 10.1.2.11) ns3::UdpHeader (length: 2056 49153 > 9) Payload Fragment [0:1472] ns3::EthernetTrailer (fcs=0)
+ 4.01836 /NodeList/1/DeviceList/1/$ns3::CsmaNetDevice/TxQueue/Enqueue ns3::EthernetHeader ( length/type=0x800, source=00:00:00:00:00:03, destination=00:00:00:00:00:0d) ns3::Ipv4Header (tos 0x0 DSCP Default ECN Not-ECT ttl 63 id 2 protocol 17 offset (bytes) 1480 flags [none] length: 596 10.1.1.1 > 10.1.2.11) Payload Fragment [1472:2048] ns3::EthernetTrailer (fcs=0)
- 4.01836 /NodeList/1/DeviceList/1/$ns3::CsmaNetDevice/TxQueue/Dequeue ns3::EthernetHeader ( length/type=0x800, source=00:00:00:00:00:03, destination=00:00:00:00:00:0d) ns3::Ipv4Header (tos 0x0 DSCP Default ECN Not-ECT ttl 63 id 2 protocol 17 offset (bytes) 1480 flags [none] length: 596 10.1.1.1 > 10.1.2.11) Payload Fragment [1472:2048] ns3::EthernetTrailer (fcs=0)
r 4.03252 /NodeList/11/DeviceList/0/$ns3::CsmaNetDevice/MacRx ns3::EthernetHeader ( length/type=0x800, source=00:00:00:00:00:03, destination=00:00:00:00:00:0d) ns3::Ipv4Header (tos 0x0 DSCP Default ECN Not-ECT ttl 63 id 2 protocol 17 offset (bytes) 0 flags [MF] length: 1500 10.1.1.1 > 10.1.2.11) ns3::UdpHeader (length: 2056 49153 > 9) Payload Fragment [0:1472] ns3::EthernetTrailer (fcs=0)
r 4.04776 /NodeList/11/DeviceList/0/$ns3::CsmaNetDevice/MacRx ns3::EthernetHeader ( length/type=0x800, source=00:00:00:00:00:03, destination=00:00:00:00:00:0d) ns3::Ipv4Header (tos 0x0 DSCP Default ECN Not-ECT ttl 63 id 2 protocol 17 offset (bytes) 1480 flags [none] length: 596 10.1.1.1 > 10.1.2.11) Payload Fragment [1472:2048] ns3::EthernetTrailer (fcs=0)
+ 4.04776 /NodeList/11/DeviceList/0/$ns3::CsmaNetDevice/TxQueue/Enqueue ns3::EthernetHeader ( length/type=0x800, source=00:00:00:00:00:0d, destination=00:00:00:00:00:03) ns3::Ipv4Header (tos 0x0 DSCP Default ECN Not-ECT ttl 64 id 2 protocol 17 offset (bytes) 0 flags [MF] length: 1500 10.1.2.11 > 10.1.1.1) ns3::UdpHeader (length: 2056 9 > 49153) Payload Fragment [0:1472] ns3::EthernetTrailer (fcs=0)
- 4.04776 /NodeList/11/DeviceList/0/$ns3::CsmaNetDevice/TxQueue/Dequeue ns3::EthernetHeader ( length/type=0x800, source=00:00:00:00:00:0d, destination=00:00:00:00:00:03) ns3::Ipv4Header (tos 0x0 DSCP Default ECN Not-ECT ttl 64 id 2 protocol 17 offset (bytes) 0 flags [MF] length: 1500 10.1.2.11 > 10.1.1.1) ns3::UdpHeader (length: 2056 9 > 49153) Payload Fragment [0:1472] ns3::EthernetTrailer (fcs=0)
+ 4.04776 /NodeList/11/DeviceList/0/$ns3::CsmaNetDevice/TxQueue/Enqueue ns3::EthernetHeader ( length/type=0x800, source=00:00:00:00:00:0d, destination=00:00:00:00:00:03) ns3::Ipv4Header (tos 0x0 DSCP Default ECN Not-ECT ttl 64 id 2 protocol 17 offset (bytes) 1480 flags [none] length: 596 10.1.2.11 > 10.1.1.1) Payload Fragment [1472:2048] ns3::EthernetTrailer (fcs=0)
- 4.04788 /NodeList/11/DeviceList/0/$ns3::CsmaNetDevice/TxQueue/Dequeue ns3::EthernetHeader ( length/type=0x800, source=00:00:00:00:00:0d, destination=00:00:00:00:00:03) ns3::Ipv4Header (tos 0x0 DSCP Default ECN Not-ECT ttl 64 id 2 protocol 17 offset (bytes) 1480 flags [none] length: 596 10.1.2.11 > 10.1.1.1) Payload Fragment [1472:2048] ns3::EthernetTrailer (fcs=0)
r 4.06288 /NodeList/1/DeviceList/1/$ns3::CsmaNetDevice/MacRx ns3::EthernetHeader ( length/type=0x800, source=00:00:00:00:00:0d, destination=00:00:00:00:00:03) ns3::Ipv4Header (tos 0x0 DSCP Default ECN Not-ECT ttl 64 id 2 protocol 17 offset (bytes) 0 flags [MF] length: 1500 10.1.2.11 > 10.1.1.1) ns3::UdpHeader (length: 2056 9 > 49153) Payload Fragment [0:1472] ns3::EthernetTrailer (fcs=0)
r 4.07869 /NodeList/1/DeviceList/1/$ns3::CsmaNetDevice/MacRx ns3::EthernetHeader ( length/type=0x800, source=00:00:00:00:00:0d, destination=00:00:00:00:00:03) ns3::Ipv4Header (tos 0x0 DSCP Default ECN Not-ECT ttl 64 id 2 protocol 17 offset (bytes) 1480 flags [none] length: 596 10.1.2.11 > 10.1.1.1) Payload Fragment [1472:2048] ns3::EthernetTrailer (fcs=0)
